<?xml version="1.0" encoding="UTF-8"?>

<!-- generated on 2024-06-07 19:42:41 by Eclipse SUMO GUI Version 1.11.0
<configuration xmlns:xsi="http://www.w3.org/2001/XMLSchema-instance" xsi:noNamespaceSchemaLocation="http://sumo.dlr.de/xsd/sumoConfiguration.xsd">

    <input>
        <net-file value="/home/veins/src/sumo/docs/tutorial/calibrated%20intersection/intersection.net.xml"/>
        <route-files value="/home/veins/src/sumo/docs/tutorial/calibrated%20intersection/map.rou.xml"/>
        <additional-files value="/home/veins/src/sumo/docs/tutorial/calibrated%20intersection/map.add.xml,/home/veins/src/sumo/docs/tutorial/calibrated%20intersection/detectors.add.xml"/>
    </input>

    <output>
        <queue-output value="/home/veins/src/sumo/docs/tutorial/calibrated%20intersection/que.xml"/>
    </output>

    <processing>
        <tls.actuated.show-detectors value="true"/>
        <default.carfollowmodel value="Krauss"/>
    </processing>

    <report>
        <verbose value="true"/>
        <duration-log.statistics value="true"/>
        <no-step-log value="true"/>
    </report>

</configuration>
-->

<meandata xmlns:xsi="http://www.w3.org/2001/XMLSchema-instance" xsi:noNamespaceSchemaLocation="http://sumo.dlr.de/xsd/meandata_file.xsd">
    <interval begin="0.00" end="900.00" id="1">
        <edge id="1" sampledSeconds="26883.39" traveltime="65.91" overlapTraveltime="66.11" density="23.24" laneDensity="7.75" occupancy="3.09" waitingTime="0.00" timeLoss="1205.20" speed="19.50" departed="421" arrived="0" entered="0" left="392" laneChangedFrom="663" laneChangedTo="663"/>
        <edge id="10" sampledSeconds="49098.19" traveltime="98.58" overlapTraveltime="98.83" density="29.06" laneDensity="9.69" occupancy="3.87" waitingTime="0.00" timeLoss="3011.60" speed="19.03" departed="382" arrived="269" entered="311" left="360" laneChangedFrom="718" laneChangedTo="718"/>
        <edge id="11" sampledSeconds="13475.47" traveltime="37.13" overlapTraveltime="37.65" density="98.62" laneDensity="16.44" occupancy="6.51" waitingTime="7440.00" timeLoss="9549.14" speed="4.14" departed="0" arrived="0" entered="360" left="349" laneChangedFrom="95" laneChangedTo="95"/>
        <edge id="12" sampledSeconds="6638.38" traveltime="20.11" overlapTraveltime="20.32" density="19.73" laneDensity="6.58" occupancy="2.60" waitingTime="0.00" timeLoss="577.74" speed="18.60" departed="0" arrived="0" entered="337" left="313" laneChangedFrom="50" laneChangedTo="50"/>
        <edge id="13" sampledSeconds="19471.63" traveltime="63.72" overlapTraveltime="63.92" density="17.72" laneDensity="5.91" occupancy="2.36" waitingTime="0.00" timeLoss="1169.20" speed="19.16" departed="0" arrived="301" entered="313" left="0" laneChangedFrom="128" laneChangedTo="128"/>
        <edge id="14" sampledSeconds="24383.03" traveltime="94.56" overlapTraveltime="94.77" density="14.63" laneDensity="7.32" occupancy="2.92" waitingTime="0.00" timeLoss="994.43" speed="19.58" departed="270" arrived="0" entered="0" left="244" laneChangedFrom="254" laneChangedTo="254"/>
        <edge id="15" sampledSeconds="12120.93" traveltime="49.89" overlapTraveltime="50.45" density="46.57" laneDensity="9.31" occupancy="3.70" waitingTime="6575.00" timeLoss="8638.03" speed="5.81" departed="0" arrived="0" entered="244" left="224" laneChangedFrom="157" laneChangedTo="157"/>
        <edge id="16" sampledSeconds="16983.11" traveltime="84.77" overlapTraveltime="84.98" density="11.87" laneDensity="5.93" occupancy="2.37" waitingTime="0.00" timeLoss="1372.73" speed="18.76" departed="0" arrived="182" entered="210" left="0" laneChangedFrom="56" laneChangedTo="56"/>
        <edge id="17" sampledSeconds="8617.15" traveltime="42.98" overlapTraveltime="43.18" density="11.29" laneDensity="3.76" occupancy="1.50" waitingTime="0.00" timeLoss="297.03" speed="19.72" departed="203" arrived="0" entered="0" left="195" laneChangedFrom="261" laneChangedTo="261"/>
        <edge id="18" sampledSeconds="9685.87" traveltime="49.72" overlapTraveltime="50.46" density="37.92" laneDensity="7.58" occupancy="3.01" waitingTime="5138.00" timeLoss="6921.57" speed="5.70" departed="0" arrived="0" entered="195" left="181" laneChangedFrom="70" laneChangedTo="70"/>
        <edge id="19" sampledSeconds="2262.49" traveltime="16.93" overlapTraveltime="17.14" density="8.90" laneDensity="4.45" occupancy="1.74" waitingTime="0.00" timeLoss="408.09" speed="16.72" departed="0" arrived="0" entered="132" left="132" laneChangedFrom="58" laneChangedTo="58"/>
        <edge id="2" sampledSeconds="16072.88" traveltime="40.97" overlapTraveltime="41.41" density="62.85" laneDensity="10.48" occupancy="4.16" waitingTime="7281.00" timeLoss="10569.61" speed="6.96" departed="0" arrived="0" entered="392" left="381" laneChangedFrom="279" laneChangedTo="279"/>
        <edge id="20" sampledSeconds="11563.92" traveltime="94.33" overlapTraveltime="94.53" density="6.87" laneDensity="3.44" occupancy="1.37" waitingTime="0.00" timeLoss="358.30" speed="19.82" departed="0" arrived="117" entered="132" left="0" laneChangedFrom="109" laneChangedTo="109"/>
        <edge id="21" sampledSeconds="4867.30" traveltime="165.75" overlapTraveltime="166.09" density="2.75" laneDensity="1.38" occupancy="0.55" waitingTime="0.00" timeLoss="218.83" speed="11.85" departed="31" arrived="0" entered="0" left="27" laneChangedFrom="24" laneChangedTo="24"/>
        <edge id="22" sampledSeconds="1098.32" traveltime="39.72" overlapTraveltime="40.72" density="5.86" laneDensity="2.93" occupancy="1.16" waitingTime="528.00" timeLoss="635.31" speed="5.21" departed="0" arrived="0" entered="27" left="26" laneChangedFrom="0" laneChangedTo="0"/>
        <edge id="23" sampledSeconds="373.11" traveltime="16.61" overlapTraveltime="16.98" density="2.36" laneDensity="2.36" occupancy="0.92" waitingTime="0.00" timeLoss="21.80" speed="10.60" departed="0" arrived="0" entered="22" left="22" laneChangedFrom="0" laneChangedTo="0"/>
        <edge id="24" sampledSeconds="1051.01" traveltime="51.24" overlapTraveltime="51.62" density="2.13" laneDensity="1.06" occupancy="0.42" waitingTime="0.00" timeLoss="48.48" speed="10.72" departed="0" arrived="20" entered="21" left="0" laneChangedFrom="0" laneChangedTo="0"/>
        <edge id="25" sampledSeconds="881.06" traveltime="29.05" overlapTraveltime="29.37" density="1.78" laneDensity="0.89" occupancy="0.35" waitingTime="0.00" timeLoss="37.99" speed="18.84" departed="30" arrived="0" entered="0" left="30" laneChangedFrom="19" laneChangedTo="19"/>
        <edge id="26" sampledSeconds="1165.69" traveltime="38.13" overlapTraveltime="38.99" density="7.33" laneDensity="3.66" occupancy="1.44" waitingTime="576.00" timeLoss="677.28" speed="4.64" departed="0" arrived="0" entered="30" left="29" laneChangedFrom="0" laneChangedTo="0"/>
        <edge id="27" sampledSeconds="117.90" traveltime="19.28" overlapTraveltime="19.65" density="0.63" laneDensity="0.63" occupancy="0.25" waitingTime="0.00" timeLoss="5.21" speed="10.75" departed="0" arrived="0" entered="6" left="6" laneChangedFrom="0" laneChangedTo="0"/>
        <edge id="28" sampledSeconds="993.61" traveltime="181.22" overlapTraveltime="181.58" density="0.56" laneDensity="0.28" occupancy="0.11" waitingTime="0.00" timeLoss="45.10" speed="10.84" departed="0" arrived="5" entered="6" left="0" laneChangedFrom="0" laneChangedTo="0"/>
        <edge id="3" sampledSeconds="15306.07" traveltime="35.34" overlapTraveltime="35.54" density="25.77" laneDensity="8.59" occupancy="3.41" waitingTime="0.00" timeLoss="1287.72" speed="18.68" departed="0" arrived="283" entered="454" left="133" laneChangedFrom="95" laneChangedTo="95"/>
        <edge id="4" sampledSeconds="30180.33" traveltime="63.08" overlapTraveltime="63.34" density="27.64" laneDensity="9.21" occupancy="3.67" waitingTime="0.00" timeLoss="1558.71" speed="19.22" departed="364" arrived="114" entered="133" left="340" laneChangedFrom="433" laneChangedTo="433"/>
        <edge id="5" sampledSeconds="9064.61" traveltime="26.49" overlapTraveltime="26.94" density="64.67" laneDensity="12.93" occupancy="5.10" waitingTime="3195.00" timeLoss="5284.77" speed="5.93" departed="0" arrived="0" entered="339" left="333" laneChangedFrom="93" laneChangedTo="93"/>
        <edge id="6" sampledSeconds="2239.95" traveltime="6.36" overlapTraveltime="6.58" density="22.52" laneDensity="7.51" occupancy="2.89" waitingTime="0.00" timeLoss="318.15" speed="17.41" departed="0" arrived="0" entered="346" left="337" laneChangedFrom="9" laneChangedTo="9"/>
        <edge id="7" sampledSeconds="12054.16" traveltime="36.58" overlapTraveltime="36.78" density="19.43" laneDensity="6.48" occupancy="2.58" waitingTime="0.00" timeLoss="871.38" speed="18.85" departed="0" arrived="327" entered="337" left="0" laneChangedFrom="36" laneChangedTo="36"/>
        <edge id="8" sampledSeconds="10116.21" traveltime="32.45" overlapTraveltime="32.65" density="17.67" laneDensity="5.89" occupancy="2.34" waitingTime="0.00" timeLoss="353.18" speed="19.60" departed="315" arrived="0" entered="0" left="305" laneChangedFrom="285" laneChangedTo="285"/>
        <edge id="9" sampledSeconds="7484.33" traveltime="24.23" overlapTraveltime="24.69" density="48.45" laneDensity="12.11" occupancy="4.78" waitingTime="2864.00" timeLoss="4851.96" speed="7.11" departed="0" arrived="0" entered="305" left="300" laneChangedFrom="201" laneChangedTo="201"/>
    </interval>
    <interval begin="900.00" end="1800.00" id="1">
        <edge id="1" sampledSeconds="33184.43" traveltime="66.79" overlapTraveltime="66.99" density="28.69" laneDensity="9.56" occupancy="3.81" waitingTime="0.00" timeLoss="1737.10" speed="19.25" departed="499" arrived="0" entered="0" left="492" laneChangedFrom="739" laneChangedTo="739"/>
        <edge id="10" sampledSeconds="55391.73" traveltime="98.60" overlapTraveltime="98.84" density="32.79" laneDensity="10.93" occupancy="4.36" waitingTime="0.00" timeLoss="3738.11" speed="19.03" departed="332" arrived="368" entered="371" left="335" laneChangedFrom="742" laneChangedTo="742"/>
        <edge id="11" sampledSeconds="14690.86" traveltime="43.30" overlapTraveltime="43.85" density="107.52" laneDensity="17.92" occupancy="7.10" waitingTime="8882.00" timeLoss="10979.00" speed="3.55" departed="0" arrived="0" entered="335" left="326" laneChangedFrom="101" laneChangedTo="101"/>
        <edge id="12" sampledSeconds="6267.07" traveltime="20.17" overlapTraveltime="20.38" density="18.62" laneDensity="6.21" occupancy="2.45" waitingTime="0.00" timeLoss="521.22" speed="18.55" departed="0" arrived="0" entered="299" left="319" laneChangedFrom="46" laneChangedTo="46"/>
        <edge id="13" sampledSeconds="20203.98" traveltime="64.07" overlapTraveltime="64.28" density="18.39" laneDensity="6.13" occupancy="2.44" waitingTime="0.00" timeLoss="1173.97" speed="19.06" departed="0" arrived="301" entered="319" left="0" laneChangedFrom="121" laneChangedTo="121"/>
        <edge id="14" sampledSeconds="22563.54" traveltime="94.47" overlapTraveltime="94.67" density="13.54" laneDensity="6.77" occupancy="2.70" waitingTime="0.00" timeLoss="816.31" speed="19.60" departed="237" arrived="0" entered="0" left="240" laneChangedFrom="232" laneChangedTo="232"/>
        <edge id="15" sampledSeconds="15387.76" traveltime="63.34" overlapTraveltime="63.91" density="59.12" laneDensity="11.82" occupancy="4.70" waitingTime="9523.00" timeLoss="11879.10" speed="4.59" departed="0" arrived="0" entered="240" left="252" laneChangedFrom="169" laneChangedTo="169"/>
        <edge id="16" sampledSeconds="22457.25" traveltime="85.24" overlapTraveltime="85.44" density="15.69" laneDensity="7.85" occupancy="3.13" waitingTime="0.00" timeLoss="1921.51" speed="18.66" departed="0" arrived="275" entered="266" left="0" laneChangedFrom="57" laneChangedTo="57"/>
        <edge id="17" sampledSeconds="8326.35" traveltime="43.39" overlapTraveltime="43.60" density="10.91" laneDensity="3.64" occupancy="1.45" waitingTime="0.00" timeLoss="291.04" speed="19.54" departed="191" arrived="0" entered="0" left="191" laneChangedFrom="237" laneChangedTo="237"/>
        <edge id="18" sampledSeconds="12134.15" traveltime="62.39" overlapTraveltime="63.08" density="47.50" laneDensity="9.50" occupancy="3.77" waitingTime="7293.00" timeLoss="9346.92" speed="4.56" departed="0" arrived="0" entered="191" left="200" laneChangedFrom="84" laneChangedTo="84"/>
        <edge id="19" sampledSeconds="2659.31" traveltime="17.73" overlapTraveltime="17.94" density="10.46" laneDensity="5.23" occupancy="2.05" waitingTime="0.00" timeLoss="556.94" speed="15.97" departed="0" arrived="0" entered="154" left="145" laneChangedFrom="66" laneChangedTo="66"/>
        <edge id="2" sampledSeconds="20698.41" traveltime="41.86" overlapTraveltime="42.27" density="80.94" laneDensity="13.49" occupancy="5.36" waitingTime="9218.00" timeLoss="13732.78" speed="6.82" departed="0" arrived="0" entered="492" left="474" laneChangedFrom="269" laneChangedTo="269"/>
        <edge id="20" sampledSeconds="14516.02" traveltime="96.25" overlapTraveltime="96.45" density="8.63" laneDensity="4.31" occupancy="1.72" waitingTime="0.00" timeLoss="542.12" speed="19.43" departed="0" arrived="150" entered="145" left="0" laneChangedFrom="99" laneChangedTo="99"/>
        <edge id="21" sampledSeconds="5505.33" traveltime="167.79" overlapTraveltime="168.13" density="3.12" laneDensity="1.56" occupancy="0.62" waitingTime="0.00" timeLoss="233.14" speed="11.70" departed="33" arrived="0" entered="0" left="32" laneChangedFrom="40" laneChangedTo="40"/>
        <edge id="22" sampledSeconds="1505.68" traveltime="46.26" overlapTraveltime="47.13" density="8.03" laneDensity="4.02" occupancy="1.59" waitingTime="827.00" timeLoss="947.61" speed="4.50" departed="0" arrived="0" entered="32" left="31" laneChangedFrom="0" laneChangedTo="0"/>
        <edge id="23" sampledSeconds="373.61" traveltime="15.87" overlapTraveltime="16.23" density="2.36" laneDensity="2.36" occupancy="0.92" waitingTime="0.00" timeLoss="22.16" speed="11.09" departed="0" arrived="0" entered="23" left="23" laneChangedFrom="0" laneChangedTo="0"/>
        <edge id="24" sampledSeconds="1152.80" traveltime="48.89" overlapTraveltime="49.25" density="2.33" laneDensity="1.17" occupancy="0.46" waitingTime="0.00" timeLoss="50.96" speed="11.23" departed="0" arrived="23" entered="24" left="0" laneChangedFrom="1" laneChangedTo="1"/>
        <edge id="25" sampledSeconds="632.97" traveltime="29.82" overlapTraveltime="30.14" density="1.28" laneDensity="0.64" occupancy="0.25" waitingTime="0.00" timeLoss="30.41" speed="18.36" departed="21" arrived="0" entered="0" left="21" laneChangedFrom="11" laneChangedTo="11"/>
        <edge id="26" sampledSeconds="991.53" traveltime="46.19" overlapTraveltime="47.05" density="6.23" laneDensity="3.12" occupancy="1.23" waitingTime="573.00" timeLoss="637.74" speed="3.84" departed="0" arrived="0" entered="21" left="21" laneChangedFrom="0" laneChangedTo="0"/>
        <edge id="27" sampledSeconds="85.43" traveltime="20.96" overlapTraveltime="21.36" density="0.46" laneDensity="0.46" occupancy="0.18" waitingTime="0.00" timeLoss="4.74" speed="9.89" departed="0" arrived="0" entered="4" left="4" laneChangedFrom="0" laneChangedTo="0"/>
        <edge id="28" sampledSeconds="897.91" traveltime="198.01" overlapTraveltime="198.42" density="0.51" laneDensity="0.25" occupancy="0.10" waitingTime="0.00" timeLoss="45.30" speed="9.92" departed="0" arrived="5" entered="4" left="0" laneChangedFrom="2" laneChangedTo="2"/>
        <edge id="3" sampledSeconds="19614.89" traveltime="35.70" overlapTraveltime="35.91" density="33.02" laneDensity="11.01" occupancy="4.37" waitingTime="0.00" timeLoss="1801.15" speed="18.49" departed="0" arrived="438" entered="530" left="118" laneChangedFrom="96" laneChangedTo="96"/>
        <edge id="4" sampledSeconds="35711.14" traveltime="63.84" overlapTraveltime="64.10" density="32.71" laneDensity="10.90" occupancy="4.35" waitingTime="0.00" timeLoss="2264.87" speed="18.99" departed="432" arrived="134" entered="118" left="434" laneChangedFrom="416" laneChangedTo="416"/>
        <edge id="5" sampledSeconds="10020.94" traveltime="22.83" overlapTraveltime="23.23" density="71.49" laneDensity="14.30" occupancy="5.64" waitingTime="2926.00" timeLoss="5191.46" speed="6.88" departed="0" arrived="0" entered="434" left="431" laneChangedFrom="103" laneChangedTo="103"/>
        <edge id="6" sampledSeconds="2897.38" traveltime="6.24" overlapTraveltime="6.45" density="29.13" laneDensity="9.71" occupancy="3.74" waitingTime="0.00" timeLoss="372.81" speed="17.74" departed="0" arrived="0" entered="447" left="449" laneChangedFrom="10" laneChangedTo="10"/>
        <edge id="7" sampledSeconds="16099.25" traveltime="36.48" overlapTraveltime="36.69" density="25.94" laneDensity="8.65" occupancy="3.44" waitingTime="0.00" timeLoss="1155.26" speed="18.90" departed="0" arrived="434" entered="449" left="0" laneChangedFrom="68" laneChangedTo="68"/>
        <edge id="8" sampledSeconds="11677.98" traveltime="32.33" overlapTraveltime="32.53" density="20.40" laneDensity="6.80" occupancy="2.70" waitingTime="0.00" timeLoss="445.72" speed="19.67" departed="360" arrived="0" entered="0" left="357" laneChangedFrom="287" laneChangedTo="287"/>
        <edge id="9" sampledSeconds="7838.37" traveltime="21.57" overlapTraveltime="21.96" density="50.74" laneDensity="12.69" occupancy="5.01" waitingTime="2770.00" timeLoss="4766.80" speed="8.00" departed="0" arrived="0" entered="356" left="359" laneChangedFrom="194" laneChangedTo="194"/>
    </interval>
    <interval begin="1800.00" end="2700.00" id="1">
        <edge id="1" sampledSeconds="28813.60" traveltime="66.47" overlapTraveltime="66.67" density="24.91" laneDensity="8.30" occupancy="3.31" waitingTime="0.00" timeLoss="1266.45" speed="19.34" departed="429" arrived="0" entered="0" left="435" laneChangedFrom="678" laneChangedTo="678"/>
        <edge id="10" sampledSeconds="62807.27" traveltime="100.03" overlapTraveltime="100.28" density="37.18" laneDensity="12.39" occupancy="4.95" waitingTime="0.00" timeLoss="4689.93" speed="18.76" departed="413" arrived="359" entered="383" left="425" laneChangedFrom="730" laneChangedTo="730"/>
        <edge id="11" sampledSeconds="14782.77" traveltime="34.50" overlapTraveltime="34.99" density="108.19" laneDensity="18.03" occupancy="7.13" waitingTime="7440.00" timeLoss="10135.16" speed="4.45" departed="0" arrived="0" entered="425" left="431" laneChangedFrom="111" laneChangedTo="111"/>
        <edge id="12" sampledSeconds="7742.48" traveltime="20.27" overlapTraveltime="20.48" density="23.01" laneDensity="7.67" occupancy="3.03" waitingTime="0.00" timeLoss="722.94" speed="18.46" departed="0" arrived="0" entered="387" left="368" laneChangedFrom="48" laneChangedTo="48"/>
        <edge id="13" sampledSeconds="24129.34" traveltime="64.17" overlapTraveltime="64.37" density="21.96" laneDensity="7.32" occupancy="2.92" waitingTime="0.00" timeLoss="1568.23" speed="19.03" departed="0" arrived="385" entered="368" left="0" laneChangedFrom="131" laneChangedTo="131"/>
        <edge id="14" sampledSeconds="19887.99" traveltime="94.66" overlapTraveltime="94.87" density="11.93" laneDensity="5.97" occupancy="2.38" waitingTime="0.00" timeLoss="679.61" speed="19.56" departed="208" arrived="0" entered="0" left="210" laneChangedFrom="207" laneChangedTo="207"/>
        <edge id="15" sampledSeconds="11201.88" traveltime="52.55" overlapTraveltime="53.18" density="43.04" laneDensity="8.61" occupancy="3.42" waitingTime="6302.00" timeLoss="8115.78" speed="5.51" departed="0" arrived="0" entered="210" left="204" laneChangedFrom="148" laneChangedTo="148"/>
        <edge id="16" sampledSeconds="23210.30" traveltime="84.37" overlapTraveltime="84.57" density="16.22" laneDensity="8.11" occupancy="3.23" waitingTime="0.00" timeLoss="1590.61" speed="18.85" departed="0" arrived="269" entered="274" left="0" laneChangedFrom="116" laneChangedTo="116"/>
        <edge id="17" sampledSeconds="7678.87" traveltime="43.09" overlapTraveltime="43.30" density="10.06" laneDensity="3.35" occupancy="1.34" waitingTime="0.00" timeLoss="260.39" speed="19.67" departed="177" arrived="0" entered="0" left="178" laneChangedFrom="220" laneChangedTo="220"/>
        <edge id="18" sampledSeconds="8479.28" traveltime="47.03" overlapTraveltime="47.73" density="33.19" laneDensity="6.64" occupancy="2.63" waitingTime="4453.00" timeLoss="5933.29" speed="6.03" departed="0" arrived="0" entered="178" left="172" laneChangedFrom="84" laneChangedTo="84"/>
        <edge id="19" sampledSeconds="2671.92" traveltime="17.47" overlapTraveltime="17.68" density="10.51" laneDensity="5.25" occupancy="2.06" waitingTime="0.00" timeLoss="539.64" speed="16.21" departed="0" arrived="0" entered="146" left="154" laneChangedFrom="59" laneChangedTo="59"/>
        <edge id="2" sampledSeconds="17521.60" traveltime="39.69" overlapTraveltime="40.15" density="68.52" laneDensity="11.42" occupancy="4.53" waitingTime="7396.00" timeLoss="11253.96" speed="7.18" departed="0" arrived="0" entered="435" left="454" laneChangedFrom="284" laneChangedTo="284"/>
        <edge id="20" sampledSeconds="14420.10" traveltime="95.25" overlapTraveltime="95.45" density="8.57" laneDensity="4.28" occupancy="1.71" waitingTime="0.00" timeLoss="457.97" speed="19.63" departed="0" arrived="151" entered="154" left="0" laneChangedFrom="116" laneChangedTo="116"/>
        <edge id="21" sampledSeconds="4558.14" traveltime="166.67" overlapTraveltime="167.01" density="2.58" laneDensity="1.29" occupancy="0.51" waitingTime="0.00" timeLoss="190.32" speed="11.78" departed="27" arrived="0" entered="0" left="28" laneChangedFrom="32" laneChangedTo="32"/>
        <edge id="22" sampledSeconds="1411.31" traveltime="50.48" overlapTraveltime="51.43" density="7.53" laneDensity="3.77" occupancy="1.49" waitingTime="812.00" timeLoss="935.64" speed="4.13" departed="0" arrived="0" entered="28" left="28" laneChangedFrom="0" laneChangedTo="0"/>
        <edge id="23" sampledSeconds="366.50" traveltime="16.29" overlapTraveltime="16.66" density="2.31" laneDensity="2.31" occupancy="0.90" waitingTime="0.00" timeLoss="21.79" speed="10.80" departed="0" arrived="0" entered="22" left="22" laneChangedFrom="0" laneChangedTo="0"/>
        <edge id="24" sampledSeconds="1082.75" traveltime="50.05" overlapTraveltime="50.41" density="2.19" laneDensity="1.10" occupancy="0.44" waitingTime="0.00" timeLoss="49.39" speed="10.97" departed="0" arrived="22" entered="22" left="0" laneChangedFrom="1" laneChangedTo="1"/>
        <edge id="25" sampledSeconds="791.53" traveltime="30.10" overlapTraveltime="30.44" density="1.60" laneDensity="0.80" occupancy="0.32" waitingTime="0.00" timeLoss="36.50" speed="18.17" departed="26" arrived="0" entered="0" left="26" laneChangedFrom="18" laneChangedTo="18"/>
        <edge id="26" sampledSeconds="1299.82" traveltime="49.16" overlapTraveltime="50.02" density="8.17" laneDensity="4.08" occupancy="1.61" waitingTime="757.00" timeLoss="857.75" speed="3.61" departed="0" arrived="0" entered="26" left="26" laneChangedFrom="0" laneChangedTo="0"/>
        <edge id="27" sampledSeconds="211.12" traveltime="18.84" overlapTraveltime="19.19" density="1.13" laneDensity="1.13" occupancy="0.44" waitingTime="0.00" timeLoss="11.67" speed="11.01" departed="0" arrived="0" entered="11" left="11" laneChangedFrom="0" laneChangedTo="0"/>
        <edge id="28" sampledSeconds="1700.02" traveltime="178.02" overlapTraveltime="178.39" density="0.96" laneDensity="0.48" occupancy="0.19" waitingTime="0.00" timeLoss="74.73" speed="11.03" departed="0" arrived="9" entered="11" left="0" laneChangedFrom="0" laneChangedTo="0"/>
        <edge id="3" sampledSeconds="16079.89" traveltime="35.84" overlapTraveltime="36.05" density="27.07" laneDensity="9.02" occupancy="3.58" waitingTime="0.00" timeLoss="1413.15" speed="18.42" departed="0" arrived="333" entered="457" left="108" laneChangedFrom="90" laneChangedTo="90"/>
        <edge id="4" sampledSeconds="29701.23" traveltime="62.89" overlapTraveltime="63.15" density="27.20" laneDensity="9.07" occupancy="3.61" waitingTime="0.00" timeLoss="1542.05" speed="19.27" departed="366" arrived="104" entered="108" left="363" laneChangedFrom="502" laneChangedTo="502"/>
        <edge id="5" sampledSeconds="9459.73" traveltime="25.30" overlapTraveltime="25.74" density="67.49" laneDensity="13.50" occupancy="5.32" waitingTime="3507.00" timeLoss="5337.82" speed="6.21" departed="0" arrived="0" entered="364" left="371" laneChangedFrom="78" laneChangedTo="78"/>
        <edge id="6" sampledSeconds="2438.82" traveltime="6.19" overlapTraveltime="6.40" density="24.52" laneDensity="8.17" occupancy="3.14" waitingTime="0.00" timeLoss="294.92" speed="17.89" departed="0" arrived="0" entered="379" left="382" laneChangedFrom="3" laneChangedTo="3"/>
        <edge id="7" sampledSeconds="13967.27" traveltime="36.16" overlapTraveltime="36.36" density="22.51" laneDensity="7.50" occupancy="2.99" waitingTime="0.00" timeLoss="869.11" speed="19.07" departed="0" arrived="386" entered="382" left="0" laneChangedFrom="60" laneChangedTo="60"/>
        <edge id="8" sampledSeconds="12274.35" traveltime="32.71" overlapTraveltime="32.91" density="21.44" laneDensity="7.15" occupancy="2.84" waitingTime="0.00" timeLoss="483.20" speed="19.45" departed="373" arrived="0" entered="0" left="374" laneChangedFrom="289" laneChangedTo="289"/>
        <edge id="9" sampledSeconds="9017.33" traveltime="23.72" overlapTraveltime="24.14" density="58.37" laneDensity="14.59" occupancy="5.77" waitingTime="3391.00" timeLoss="5763.42" speed="7.28" departed="0" arrived="0" entered="374" left="371" laneChangedFrom="210" laneChangedTo="210"/>
    </interval>
    <interval begin="2700.00" end="3600.00" id="1">
        <edge id="1" sampledSeconds="24871.52" traveltime="65.83" overlapTraveltime="66.04" density="21.50" laneDensity="7.17" occupancy="2.86" waitingTime="0.00" timeLoss="988.60" speed="19.52" departed="374" arrived="0" entered="0" left="379" laneChangedFrom="631" laneChangedTo="631"/>
        <edge id="10" sampledSeconds="28064.68" traveltime="97.49" overlapTraveltime="97.77" density="16.61" laneDensity="5.54" occupancy="2.21" waitingTime="0.00" timeLoss="1470.77" speed="19.24" departed="345" arrived="108" entered="60" left="348" laneChangedFrom="632" laneChangedTo="632"/>
        <edge id="11" sampledSeconds="11768.21" traveltime="33.07" overlapTraveltime="33.64" density="86.13" laneDensity="14.35" occupancy="5.67" waitingTime="5866.00" timeLoss="7931.18" speed="4.63" departed="0" arrived="0" entered="348" left="347" laneChangedFrom="92" laneChangedTo="92"/>
        <edge id="12" sampledSeconds="7157.24" traveltime="20.12" overlapTraveltime="20.33" density="21.27" laneDensity="7.09" occupancy="2.80" waitingTime="0.00" timeLoss="598.11" speed="18.59" departed="0" arrived="0" entered="342" left="363" laneChangedFrom="45" laneChangedTo="45"/>
        <edge id="13" sampledSeconds="22690.26" traveltime="63.68" overlapTraveltime="63.88" density="20.65" laneDensity="6.88" occupancy="2.75" waitingTime="0.00" timeLoss="1255.99" speed="19.17" departed="0" arrived="349" entered="363" left="0" laneChangedFrom="160" laneChangedTo="160"/>
        <edge id="14" sampledSeconds="21247.66" traveltime="94.42" overlapTraveltime="94.62" density="12.75" laneDensity="6.37" occupancy="2.54" waitingTime="0.00" timeLoss="794.14" speed="19.61" departed="225" arrived="0" entered="0" left="226" laneChangedFrom="218" laneChangedTo="218"/>
        <edge id="15" sampledSeconds="9718.79" traveltime="42.58" overlapTraveltime="43.27" density="37.34" laneDensity="7.47" occupancy="2.96" waitingTime="4686.00" timeLoss="6440.69" speed="6.78" departed="0" arrived="0" entered="225" left="232" laneChangedFrom="167" laneChangedTo="167"/>
        <edge id="16" sampledSeconds="19785.79" traveltime="83.15" overlapTraveltime="83.35" density="13.82" laneDensity="6.91" occupancy="2.76" waitingTime="0.00" timeLoss="1198.71" speed="19.13" departed="0" arrived="238" entered="236" left="0" laneChangedFrom="97" laneChangedTo="97"/>
        <edge id="17" sampledSeconds="6016.73" traveltime="43.40" overlapTraveltime="43.60" density="7.89" laneDensity="2.63" occupancy="1.05" waitingTime="0.00" timeLoss="188.03" speed="19.53" departed="137" arrived="0" entered="0" left="138" laneChangedFrom="195" laneChangedTo="195"/>
        <edge id="18" sampledSeconds="5862.13" traveltime="41.17" overlapTraveltime="41.95" density="22.95" laneDensity="4.59" occupancy="1.82" waitingTime="2932.00" timeLoss="3835.66" speed="6.86" departed="0" arrived="0" entered="138" left="146" laneChangedFrom="75" laneChangedTo="75"/>
        <edge id="19" sampledSeconds="2145.08" traveltime="16.64" overlapTraveltime="16.85" density="8.43" laneDensity="4.22" occupancy="1.65" waitingTime="0.00" timeLoss="345.03" speed="17.00" departed="0" arrived="0" entered="127" left="126" laneChangedFrom="55" laneChangedTo="55"/>
        <edge id="2" sampledSeconds="13050.87" traveltime="34.03" overlapTraveltime="34.53" density="51.04" laneDensity="8.51" occupancy="3.37" waitingTime="4913.00" timeLoss="7654.30" speed="8.35" departed="0" arrived="0" entered="379" left="365" laneChangedFrom="283" laneChangedTo="283"/>
        <edge id="20" sampledSeconds="12018.28" traveltime="95.24" overlapTraveltime="95.44" density="7.14" laneDensity="3.57" occupancy="1.43" waitingTime="0.00" timeLoss="386.03" speed="19.64" departed="0" arrived="125" entered="126" left="0" laneChangedFrom="95" laneChangedTo="95"/>
        <edge id="21" sampledSeconds="3671.45" traveltime="167.40" overlapTraveltime="167.74" density="2.08" laneDensity="1.04" occupancy="0.41" waitingTime="0.00" timeLoss="152.34" speed="11.73" departed="21" arrived="0" entered="0" left="23" laneChangedFrom="24" laneChangedTo="24"/>